<?xml version="1.0" encoding="UTF-8"?>

<!-- generated on 2022-10-19 11:51:18 by Eclipse SUMO GUI Version 1.9.2
<configuration xmlns:xsi="http://www.w3.org/2001/XMLSchema-instance" xsi:noNamespaceSchemaLocation="http://sumo.dlr.de/xsd/sumoConfiguration.xsd">

    <input>
        <net-file value="/data/ComFASE/sumocfg/freeway.net.xml"/>
        <route-files value="/data/ComFASE/sumocfg/freeway.rou.xml"/>
    </input>

    <output>
        <output-prefix value="TIME"/>
        <fcd-output value="/data/ComFASE/sumocfg/fcd-output.xml"/>
        <fcd-output.signals value="true"/>
        <fcd-output.distance value="true"/>
        <fcd-output.acceleration value="true"/>
        <collision-output value="/data/ComFASE/sumocfg/collision-output.xml"/>
    </output>

    <time>
        <begin value="0"/>
        <end value="81600"/>
        <step-length value="0.01"/>
    </time>

    <processing>
        <step-method.ballistic value="true"/>
        <collision.action value="warn"/>
    </processing>

    <traci_server>
        <remote-port value="42909"/>
    </traci_server>

    <random_number>
        <seed value="0"/>
    </random_number>

    <gui_only>
        <gui-settings-file value="/data/ComFASE/sumocfg/freeway.gui.xml"/>
        <start value="true"/>
        <tracker-interval value="0.01"/>
    </gui_only>

</configuration>
-->

<fcd-export xmlns:xsi="http://www.w3.org/2001/XMLSchema-instance" xsi:noNamespaceSchemaLocation="http://sumo.dlr.de/xsd/fcd_file.xsd">
    <timestep time="0.00"/>
    <timestep time="0.01"/>
    <timestep time="0.02"/>
    <timestep time="0.03"/>
    <timestep time="0.04"/>
    <timestep time="0.05"/>
    <timestep time="0.06"/>
    <timestep time="0.07"/>
    <timestep time="0.08"/>
    <timestep time="0.09"/>
    <timestep time="0.10"/>
    <timestep time="0.11"/>
    <timestep time="0.12"/>
    <timestep time="0.13"/>
    <timestep time="0.14"/>
    <timestep time="0.15"/>
    <timestep time="0.16"/>
    <timestep time="0.17"/>
    <timestep time="0.18"/>
    <timestep time="0.19"/>
    <timestep time="0.20"/>
    <timestep time="0.21"/>
    <timestep time="0.22"/>
    <timestep time="0.23"/>
    <timestep time="0.24"/>
    <timestep time="0.25"/>
    <timestep time="0.26"/>
    <timestep time="0.27"/>
    <timestep time="0.28"/>
    <timestep time="0.29"/>
    <timestep time="0.30"/>
    <timestep time="0.31"/>
    <timestep time="0.32"/>
    <timestep time="0.33"/>
    <timestep time="0.34"/>
    <timestep time="0.35"/>
    <timestep time="0.36"/>
    <timestep time="0.37"/>
    <timestep time="0.38"/>
    <timestep time="0.39"/>
    <timestep time="0.40"/>
    <timestep time="0.41"/>
    <timestep time="0.42"/>
    <timestep time="0.43"/>
    <timestep time="0.44"/>
    <timestep time="0.45"/>
    <timestep time="0.46"/>
    <timestep time="0.47"/>
    <timestep time="0.48"/>
    <timestep time="0.49"/>
    <timestep time="0.50"/>
    <timestep time="0.51"/>
    <timestep time="0.52"/>
    <timestep time="0.53"/>
    <timestep time="0.54"/>
    <timestep time="0.55"/>
    <timestep time="0.56"/>
    <timestep time="0.57"/>
    <timestep time="0.58"/>
    <timestep time="0.59"/>
    <timestep time="0.60"/>
    <timestep time="0.61"/>
    <timestep time="0.62"/>
    <timestep time="0.63"/>
    <timestep time="0.64"/>
    <timestep time="0.65"/>
    <timestep time="0.66"/>
    <timestep time="0.67"/>
    <timestep time="0.68"/>
    <timestep time="0.69"/>
    <timestep time="0.70"/>
    <timestep time="0.71"/>
    <timestep time="0.72"/>
    <timestep time="0.73"/>
    <timestep time="0.74"/>
    <timestep time="0.75"/>
    <timestep time="0.76"/>
    <timestep time="0.77"/>
    <timestep time="0.78"/>
    <timestep time="0.79"/>
    <timestep time="0.80"/>
    <timestep time="0.81"/>
    <timestep time="0.82"/>
    <timestep time="0.83"/>
    <timestep time="0.84"/>
    <timestep time="0.85"/>
    <timestep time="0.86"/>
    <timestep time="0.87"/>
    <timestep time="0.88"/>
    <timestep time="0.89"/>
    <timestep time="0.90"/>
    <timestep time="0.91"/>
    <timestep time="0.92"/>
    <timestep time="0.93"/>
    <timestep time="0.94"/>
    <timestep time="0.95"/>
    <timestep time="0.96"/>
    <timestep time="0.97"/>
    <timestep time="0.98"/>
    <timestep time="0.99"/>
    <timestep time="1.00">
        <vehicle id="vtypeauto.0" x="35.44" y="242.45" angle="90.00" type="vtypeauto" speed="27.78" pos="35.44" lane="edge_0_0_0" slope="0.00" signals="0" acceleration="0.00" distance="35.44"/>
        <vehicle id="vtypeauto.1" x="26.44" y="242.45" angle="90.00" type="vtypeauto" speed="27.78" pos="26.44" lane="edge_0_0_0" slope="0.00" signals="0" acceleration="0.00" distance="26.44"/>
        <vehicle id="vtypeauto.2" x="17.44" y="242.45" angle="90.00" type="vtypeauto" speed="27.78" pos="17.44" lane="edge_0_0_0" slope="0.00" signals="0" acceleration="0.00" distance="17.44"/>
        <vehicle id="vtypeauto.3" x="8.44" y="242.45" angle="90.00" type="vtypeauto" speed="27.78" pos="8.44" lane="edge_0_0_0" slope="0.00" signals="0" acceleration="0.00" distance="8.44"/>
    </timestep>
    <timestep time="1.01">
        <vehicle id="vtypeauto.0" x="35.72" y="242.45" angle="90.00" type="vtypeauto" speed="27.78" pos="35.72" lane="edge_0_0_0" slope="0.00" signals="0" acceleration="-0.00" distance="35.72"/>
        <vehicle id="vtypeauto.1" x="26.72" y="242.45" angle="90.00" type="vtypeauto" speed="27.78" pos="26.72" lane="edge_0_0_0" slope="0.00" signals="0" acceleration="0.00" distance="26.72"/>
        <vehicle id="vtypeauto.2" x="17.72" y="242.45" angle="90.00" type="vtypeauto" speed="27.78" pos="17.72" lane="edge_0_0_0" slope="0.00" signals="0" acceleration="0.00" distance="17.72"/>
        <vehicle id="vtypeauto.3" x="8.72" y="242.45" angle="90.00" type="vtypeauto" speed="27.78" pos="8.72" lane="edge_0_0_0" slope="0.00" signals="0" acceleration="0.00" distance="8.72"/>
    </timestep>
    <timestep time="1.02">
        <vehicle id="vtypeauto.0" x="36.00" y="242.45" angle="90.00" type="vtypeauto" speed="27.78" pos="36.00" lane="edge_0_0_0" slope="0.00" signals="0" acceleration="-0.00" distance="36.00"/>
        <vehicle id="vtypeauto.1" x="27.00" y="242.45" angle="90.00" type="vtypeauto" speed="27.78" pos="27.00" lane="edge_0_0_0" slope="0.00" signals="0" acceleration="0.00" distance="27.00"/>
        <vehicle id="vtypeauto.2" x="18.00" y="242.45" angle="90.00" type="vtypeauto" speed="27.78" pos="18.00" lane="edge_0_0_0" slope="0.00" signals="0" acceleration="0.00" distance="18.00"/>
        <vehicle id="vtypeauto.3" x="9.00" y="242.45" angle="90.00" type="vtypeauto" speed="27.78" pos="9.00" lane="edge_0_0_0" slope="0.00" signals="0" acceleration="0.00" distance="9.00"/>
    </timestep>
    <timestep time="1.03">
        <vehicle id="vtypeauto.0" x="36.27" y="242.45" angle="90.00" type="vtypeauto" speed="27.78" pos="36.27" lane="edge_0_0_0" slope="0.00" signals="0" acceleration="-0.00" distance="36.27"/>
        <vehicle id="vtypeauto.1" x="27.27" y="242.45" angle="90.00" type="vtypeauto" speed="27.78" pos="27.27" lane="edge_0_0_0" slope="0.00" signals="0" acceleration="0.00" distance="27.27"/>
        <vehicle id="vtypeauto.2" x="18.27" y="242.45" angle="90.00" type="vtypeauto" speed="27.78" pos="18.27" lane="edge_0_0_0" slope="0.00" signals="0" acceleration="0.00" distance="18.27"/>
        <vehicle id="vtypeauto.3" x="9.27" y="242.45" angle="90.00" type="vtypeauto" speed="27.78" pos="9.27" lane="edge_0_0_0" slope="0.00" signals="0" acceleration="0.00" distance="9.27"/>
    </timestep>
    <timestep time="1.04">
        <vehicle id="vtypeauto.0" x="36.55" y="242.45" angle="90.00" type="vtypeauto" speed="27.78" pos="36.55" lane="edge_0_0_0" slope="0.00" signals="0" acceleration="-0.00" distance="36.55"/>
        <vehicle id="vtypeauto.1" x="27.55" y="242.45" angle="90.00" type="vtypeauto" speed="27.78" pos="27.55" lane="edge_0_0_0" slope="0.00" signals="0" acceleration="0.00" distance="27.55"/>
        <vehicle id="vtypeauto.2" x="18.55" y="242.45" angle="90.00" type="vtypeauto" speed="27.78" pos="18.55" lane="edge_0_0_0" slope="0.00" signals="0" acceleration="0.00" distance="18.55"/>
        <vehicle id="vtypeauto.3" x="9.55" y="242.45" angle="90.00" type="vtypeauto" speed="27.78" pos="9.55" lane="edge_0_0_0" slope="0.00" signals="0" acceleration="0.00" distance="9.55"/>
    </timestep>
    <timestep time="1.05">
        <vehicle id="vtypeauto.0" x="36.83" y="242.45" angle="90.00" type="vtypeauto" speed="27.78" pos="36.83" lane="edge_0_0_0" slope="0.00" signals="0" acceleration="-0.00" distance="36.83"/>
        <vehicle id="vtypeauto.1" x="27.83" y="242.45" angle="90.00" type="vtypeauto" speed="27.78" pos="27.83" lane="edge_0_0_0" slope="0.00" signals="0" acceleration="0.00" distance="27.83"/>
        <vehicle id="vtypeauto.2" x="18.83" y="242.45" angle="90.00" type="vtypeauto" speed="27.78" pos="18.83" lane="edge_0_0_0" slope="0.00" signals="0" acceleration="0.00" distance="18.83"/>
        <vehicle id="vtypeauto.3" x="9.83" y="242.45" angle="90.00" type="vtypeauto" speed="27.78" pos="9.83" lane="edge_0_0_0" slope="0.00" signals="0" acceleration="0.00" distance="9.83"/>
    </timestep>
    <timestep time="1.06">
        <vehicle id="vtypeauto.0" x="37.11" y="242.45" angle="90.00" type="vtypeauto" speed="27.78" pos="37.11" lane="edge_0_0_0" slope="0.00" signals="0" acceleration="-0.00" distance="37.11"/>
        <vehicle id="vtypeauto.1" x="28.11" y="242.45" angle="90.00" type="vtypeauto" speed="27.78" pos="28.11" lane="edge_0_0_0" slope="0.00" signals="0" acceleration="0.00" distance="28.11"/>
        <vehicle id="vtypeauto.2" x="19.11" y="242.45" angle="90.00" type="vtypeauto" speed="27.78" pos="19.11" lane="edge_0_0_0" slope="0.00" signals="0" acceleration="0.00" distance="19.11"/>
        <vehicle id="vtypeauto.3" x="10.11" y="242.45" angle="90.00" type="vtypeauto" speed="27.78" pos="10.11" lane="edge_0_0_0" slope="0.00" signals="0" acceleration="0.00" distance="10.11"/>
    </timestep>
    <timestep time="1.07">
        <vehicle id="vtypeauto.0" x="37.38" y="242.45" angle="90.00" type="vtypeauto" speed="27.78" pos="37.38" lane="edge_0_0_0" slope="0.00" signals="0" acceleration="-0.00" distance="37.38"/>
        <vehicle id="vtypeauto.1" x="28.38" y="242.45" angle="90.00" type="vtypeauto" speed="27.78" pos="28.38" lane="edge_0_0_0" slope="0.00" signals="0" acceleration="0.00" distance="28.38"/>
        <vehicle id="vtypeauto.2" x="19.38" y="242.45" angle="90.00" type="vtypeauto" speed="27.78" pos="19.38" lane="edge_0_0_0" slope="0.00" signals="0" acceleration="0.00" distance="19.38"/>
        <vehicle id="vtypeauto.3" x="10.38" y="242.45" angle="90.00" type="vtypeauto" speed="27.78" pos="10.38" lane="edge_0_0_0" slope="0.00" signals="0" acceleration="0.00" distance="10.38"/>
    </timestep>
    <timestep time="1.08">
        <vehicle id="vtypeauto.0" x="37.66" y="242.45" angle="90.00" type="vtypeauto" speed="27.78" pos="37.66" lane="edge_0_0_0" slope="0.00" signals="0" acceleration="-0.00" distance="37.66"/>
        <vehicle id="vtypeauto.1" x="28.66" y="242.45" angle="90.00" type="vtypeauto" speed="27.78" pos="28.66" lane="edge_0_0_0" slope="0.00" signals="0" acceleration="0.00" distance="28.66"/>
        <vehicle id="vtypeauto.2" x="19.66" y="242.45" angle="90.00" type="vtypeauto" speed="27.78" pos="19.66" lane="edge_0_0_0" slope="0.00" signals="0" acceleration="0.00" distance="19.66"/>
        <vehicle id="vtypeauto.3" x="10.66" y="242.45" angle="90.00" type="vtypeauto" speed="27.78" pos="10.66" lane="edge_0_0_0" slope="0.00" signals="0" acceleration="0.00" distance="10.66"/>
    </timestep>
    <timestep time="1.09">
        <vehicle id="vtypeauto.0" x="37.94" y="242.45" angle="90.00" type="vtypeauto" speed="27.78" pos="37.94" lane="edge_0_0_0" slope="0.00" signals="0" acceleration="-0.00" distance="37.94"/>
        <vehicle id="vtypeauto.1" x="28.94" y="242.45" angle="90.00" type="vtypeauto" speed="27.78" pos="28.94" lane="edge_0_0_0" slope="0.00" signals="0" acceleration="0.00" distance="28.94"/>
        <vehicle id="vtypeauto.2" x="19.94" y="242.45" angle="90.00" type="vtypeauto" speed="27.78" pos="19.94" lane="edge_0_0_0" slope="0.00" signals="0" acceleration="0.00" distance="19.94"/>
        <vehicle id="vtypeauto.3" x="10.94" y="242.45" angle="90.00" type="vtypeauto" speed="27.78" pos="10.94" lane="edge_0_0_0" slope="0.00" signals="0" acceleration="0.00" distance="10.94"/>
    </timestep>
    <timestep time="1.10">
        <vehicle id="vtypeauto.0" x="38.22" y="242.45" angle="90.00" type="vtypeauto" speed="27.78" pos="38.22" lane="edge_0_0_0" slope="0.00" signals="0" acceleration="-0.00" distance="38.22"/>
        <vehicle id="vtypeauto.1" x="29.22" y="242.45" angle="90.00" type="vtypeauto" speed="27.78" pos="29.22" lane="edge_0_0_0" slope="0.00" signals="0" acceleration="0.00" distance="29.22"/>
        <vehicle id="vtypeauto.2" x="20.22" y="242.45" angle="90.00" type="vtypeauto" speed="27.78" pos="20.22" lane="edge_0_0_0" slope="0.00" signals="0" acceleration="0.00" distance="20.22"/>
        <vehicle id="vtypeauto.3" x="11.22" y="242.45" angle="90.00" type="vtypeauto" speed="27.78" pos="11.22" lane="edge_0_0_0" slope="0.00" signals="0" acceleration="0.00" distance="11.22"/>
    </timestep>
    <timestep time="1.11">
        <vehicle id="vtypeauto.0" x="38.50" y="242.45" angle="90.00" type="vtypeauto" speed="27.78" pos="38.50" lane="edge_0_0_0" slope="0.00" signals="0" acceleration="-0.00" distance="38.50"/>
        <vehicle id="vtypeauto.1" x="29.50" y="242.45" angle="90.00" type="vtypeauto" speed="27.78" pos="29.50" lane="edge_0_0_0" slope="0.00" signals="0" acceleration="0.00" distance="29.50"/>
        <vehicle id="vtypeauto.2" x="20.50" y="242.45" angle="90.00" type="vtypeauto" speed="27.78" pos="20.50" lane="edge_0_0_0" slope="0.00" signals="0" acceleration="0.00" distance="20.50"/>
        <vehicle id="vtypeauto.3" x="11.50" y="242.45" angle="90.00" type="vtypeauto" speed="27.78" pos="11.50" lane="edge_0_0_0" slope="0.00" signals="0" acceleration="0.00" distance="11.50"/>
    </timestep>
    <timestep time="1.12">
        <vehicle id="vtypeauto.0" x="38.77" y="242.45" angle="90.00" type="vtypeauto" speed="27.78" pos="38.77" lane="edge_0_0_0" slope="0.00" signals="0" acceleration="-0.00" distance="38.77"/>
        <vehicle id="vtypeauto.1" x="29.77" y="242.45" angle="90.00" type="vtypeauto" speed="27.78" pos="29.77" lane="edge_0_0_0" slope="0.00" signals="0" acceleration="0.00" distance="29.77"/>
        <vehicle id="vtypeauto.2" x="20.77" y="242.45" angle="90.00" type="vtypeauto" speed="27.78" pos="20.77" lane="edge_0_0_0" slope="0.00" signals="0" acceleration="0.00" distance="20.77"/>
        <vehicle id="vtypeauto.3" x="11.77" y="242.45" angle="90.00" type="vtypeauto" speed="27.78" pos="11.77" lane="edge_0_0_0" slope="0.00" signals="0" acceleration="0.00" distance="11.77"/>
    </timestep>
    <timestep time="1.13">
        <vehicle id="vtypeauto.0" x="39.05" y="242.45" angle="90.00" type="vtypeauto" speed="27.78" pos="39.05" lane="edge_0_0_0" slope="0.00" signals="0" acceleration="-0.00" distance="39.05"/>
        <vehicle id="vtypeauto.1" x="30.05" y="242.45" angle="90.00" type="vtypeauto" speed="27.78" pos="30.05" lane="edge_0_0_0" slope="0.00" signals="0" acceleration="0.00" distance="30.05"/>
        <vehicle id="vtypeauto.2" x="21.05" y="242.45" angle="90.00" type="vtypeauto" speed="27.78" pos="21.05" lane="edge_0_0_0" slope="0.00" signals="0" acceleration="0.00" distance="21.05"/>
        <vehicle id="vtypeauto.3" x="12.05" y="242.45" angle="90.00" type="vtypeauto" speed="27.78" pos="12.05" lane="edge_0_0_0" slope="0.00" signals="0" acceleration="0.00" distance="12.05"/>
    </timestep>
    <timestep time="1.14">
        <vehicle id="vtypeauto.0" x="39.33" y="242.45" angle="90.00" type="vtypeauto" speed="27.78" pos="39.33" lane="edge_0_0_0" slope="0.00" signals="0" acceleration="-0.00" distance="39.33"/>
        <vehicle id="vtypeauto.1" x="30.33" y="242.45" angle="90.00" type="vtypeauto" speed="27.78" pos="30.33" lane="edge_0_0_0" slope="0.00" signals="0" acceleration="0.00" distance="30.33"/>
        <vehicle id="vtypeauto.2" x="21.33" y="242.45" angle="90.00" type="vtypeauto" speed="27.78" pos="21.33" lane="edge_0_0_0" slope="0.00" signals="0" acceleration="0.00" distance="21.33"/>
        <vehicle id="vtypeauto.3" x="12.33" y="242.45" angle="90.00" type="vtypeauto" speed="27.78" pos="12.33" lane="edge_0_0_0" slope="0.00" signals="0" acceleration="0.00" distance="12.33"/>
    </timestep>
    <timestep time="1.15">
        <vehicle id="vtypeauto.0" x="39.61" y="242.45" angle="90.00" type="vtypeauto" speed="27.78" pos="39.61" lane="edge_0_0_0" slope="0.00" signals="0" acceleration="-0.00" distance="39.61"/>
        <vehicle id="vtypeauto.1" x="30.61" y="242.45" angle="90.00" type="vtypeauto" speed="27.78" pos="30.61" lane="edge_0_0_0" slope="0.00" signals="0" acceleration="-0.00" distance="30.61"/>
        <vehicle id="vtypeauto.2" x="21.61" y="242.45" angle="90.00" type="vtypeauto" speed="27.78" pos="21.61" lane="edge_0_0_0" slope="0.00" signals="0" acceleration="-0.00" distance="21.61"/>
        <vehicle id="vtypeauto.3" x="12.61" y="242.45" angle="90.00" type="vtypeauto" speed="27.78" pos="12.61" lane="edge_0_0_0" slope="0.00" signals="0" acceleration="-0.00" distance="12.61"/>
    </timestep>
    <timestep time="1.16">
        <vehicle id="vtypeauto.0" x="39.88" y="242.45" angle="90.00" type="vtypeauto" speed="27.78" pos="39.88" lane="edge_0_0_0" slope="0.00" signals="0" acceleration="-0.00" distance="39.88"/>
        <vehicle id="vtypeauto.1" x="30.88" y="242.45" angle="90.00" type="vtypeauto" speed="27.78" pos="30.88" lane="edge_0_0_0" slope="0.00" signals="0" acceleration="-0.00" distance="30.88"/>
        <vehicle id="vtypeauto.2" x="21.88" y="242.45" angle="90.00" type="vtypeauto" speed="27.78" pos="21.88" lane="edge_0_0_0" slope="0.00" signals="0" acceleration="-0.00" distance="21.88"/>
        <vehicle id="vtypeauto.3" x="12.88" y="242.45" angle="90.00" type="vtypeauto" speed="27.78" pos="12.88" lane="edge_0_0_0" slope="0.00" signals="0" acceleration="-0.00" distance="12.88"/>
    </timestep>
    <timestep time="1.17">
        <vehicle id="vtypeauto.0" x="40.16" y="242.45" angle="90.00" type="vtypeauto" speed="27.78" pos="40.16" lane="edge_0_0_0" slope="0.00" signals="0" acceleration="-0.00" distance="40.16"/>
        <vehicle id="vtypeauto.1" x="31.16" y="242.45" angle="90.00" type="vtypeauto" speed="27.78" pos="31.16" lane="edge_0_0_0" slope="0.00" signals="0" acceleration="-0.00" distance="31.16"/>
        <vehicle id="vtypeauto.2" x="22.16" y="242.45" angle="90.00" type="vtypeauto" speed="27.78" pos="22.16" lane="edge_0_0_0" slope="0.00" signals="0" acceleration="-0.00" distance="22.16"/>
        <vehicle id="vtypeauto.3" x="13.16" y="242.45" angle="90.00" type="vtypeauto" speed="27.78" pos="13.16" lane="edge_0_0_0" slope="0.00" signals="0" acceleration="-0.00" distance="13.16"/>
    </timestep>
    <timestep time="1.18">
        <vehicle id="vtypeauto.0" x="40.44" y="242.45" angle="90.00" type="vtypeauto" speed="27.78" pos="40.44" lane="edge_0_0_0" slope="0.00" signals="0" acceleration="-0.00" distance="40.44"/>
        <vehicle id="vtypeauto.1" x="31.44" y="242.45" angle="90.00" type="vtypeauto" speed="27.78" pos="31.44" lane="edge_0_0_0" slope="0.00" signals="0" acceleration="-0.00" distance="31.44"/>
        <vehicle id="vtypeauto.2" x="22.44" y="242.45" angle="90.00" type="vtypeauto" speed="27.78" pos="22.44" lane="edge_0_0_0" slope="0.00" signals="0" acceleration="-0.00" distance="22.44"/>
        <vehicle id="vtypeauto.3" x="13.44" y="242.45" angle="90.00" type="vtypeauto" speed="27.78" pos="13.44" lane="edge_0_0_0" slope="0.00" signals="0" acceleration="-0.00" distance="13.44"/>
    </timestep>
    <timestep time="1.19">
        <vehicle id="vtypeauto.0" x="40.72" y="242.45" angle="90.00" type="vtypeauto" speed="27.78" pos="40.72" lane="edge_0_0_0" slope="0.00" signals="0" acceleration="-0.00" distance="40.72"/>
        <vehicle id="vtypeauto.1" x="31.72" y="242.45" angle="90.00" type="vtypeauto" speed="27.78" pos="31.72" lane="edge_0_0_0" slope="0.00" signals="0" acceleration="-0.00" distance="31.72"/>
        <vehicle id="vtypeauto.2" x="22.72" y="242.45" angle="90.00" type="vtypeauto" speed="27.78" pos="22.72" lane="edge_0_0_0" slope="0.00" signals="0" acceleration="-0.00" distance="22.72"/>
        <vehicle id="vtypeauto.3" x="13.72" y="242.45" angle="90.00" type="vtypeauto" speed="27.78" pos="13.72" lane="edge_0_0_0" slope="0.00" signals="0" acceleration="-0.00" distance="13.72"/>
    </timestep>
    <timestep time="1.20">
        <vehicle id="vtypeauto.0" x="41.00" y="242.45" angle="90.00" type="vtypeauto" speed="27.78" pos="41.00" lane="edge_0_0_0" slope="0.00" signals="0" acceleration="-0.00" distance="41.00"/>
        <vehicle id="vtypeauto.1" x="32.00" y="242.45" angle="90.00" type="vtypeauto" speed="27.78" pos="32.00" lane="edge_0_0_0" slope="0.00" signals="0" acceleration="-0.00" distance="32.00"/>
        <vehicle id="vtypeauto.2" x="23.00" y="242.45" angle="90.00" type="vtypeauto" speed="27.78" pos="23.00" lane="edge_0_0_0" slope="0.00" signals="0" acceleration="-0.00" distance="23.00"/>
        <vehicle id="vtypeauto.3" x="14.00" y="242.45" angle="90.00" type="vtypeauto" speed="27.78" pos="14.00" lane="edge_0_0_0" slope="0.00" signals="0" acceleration="-0.00" distance="14.00"/>
    </timestep>
    <timestep time="1.21">
        <vehicle id="vtypeauto.0" x="41.27" y="242.45" angle="90.00" type="vtypeauto" speed="27.78" pos="41.27" lane="edge_0_0_0" slope="0.00" signals="0" acceleration="-0.00" distance="41.27"/>
        <vehicle id="vtypeauto.1" x="32.27" y="242.45" angle="90.00" type="vtypeauto" speed="27.78" pos="32.27" lane="edge_0_0_0" slope="0.00" signals="0" acceleration="-0.00" distance="32.27"/>
        <vehicle id="vtypeauto.2" x="23.27" y="242.45" angle="90.00" type="vtypeauto" speed="27.78" pos="23.27" lane="edge_0_0_0" slope="0.00" signals="0" acceleration="-0.00" distance="23.27"/>
        <vehicle id="vtypeauto.3" x="14.27" y="242.45" angle="90.00" type="vtypeauto" speed="27.78" pos="14.27" lane="edge_0_0_0" slope="0.00" signals="0" acceleration="-0.00" distance="14.27"/>
    </timestep>
    <timestep time="1.22">
        <vehicle id="vtypeauto.0" x="41.55" y="242.45" angle="90.00" type="vtypeauto" speed="27.78" pos="41.55" lane="edge_0_0_0" slope="0.00" signals="0" acceleration="-0.00" distance="41.55"/>
        <vehicle id="vtypeauto.1" x="32.55" y="242.45" angle="90.00" type="vtypeauto" speed="27.78" pos="32.55" lane="edge_0_0_0" slope="0.00" signals="0" acceleration="-0.00" distance="32.55"/>
        <vehicle id="vtypeauto.2" x="23.55" y="242.45" angle="90.00" type="vtypeauto" speed="27.78" pos="23.55" lane="edge_0_0_0" slope="0.00" signals="0" acceleration="-0.00" distance="23.55"/>
        <vehicle id="vtypeauto.3" x="14.55" y="242.45" angle="90.00" type="vtypeauto" speed="27.78" pos="14.55" lane="edge_0_0_0" slope="0.00" signals="0" acceleration="-0.00" distance="14.55"/>
    </timestep>
    <timestep time="1.23">
        <vehicle id="vtypeauto.0" x="41.83" y="242.45" angle="90.00" type="vtypeauto" speed="27.78" pos="41.83" lane="edge_0_0_0" slope="0.00" signals="0" acceleration="-0.00" distance="41.83"/>
        <vehicle id="vtypeauto.1" x="32.83" y="242.45" angle="90.00" type="vtypeauto" speed="27.78" pos="32.83" lane="edge_0_0_0" slope="0.00" signals="0" acceleration="-0.00" distance="32.83"/>
        <vehicle id="vtypeauto.2" x="23.83" y="242.45" angle="90.00" type="vtypeauto" speed="27.78" pos="23.83" lane="edge_0_0_0" slope="0.00" signals="0" acceleration="-0.00" distance="23.83"/>
        <vehicle id="vtypeauto.3" x="14.83" y="242.45" angle="90.00" type="vtypeauto" speed="27.78" pos="14.83" lane="edge_0_0_0" slope="0.00" signals="0" acceleration="-0.00" distance="14.83"/>
    </timestep>
    <timestep time="1.24">
        <vehicle id="vtypeauto.0" x="42.11" y="242.45" angle="90.00" type="vtypeauto" speed="27.78" pos="42.11" lane="edge_0_0_0" slope="0.00" signals="0" acceleration="-0.00" distance="42.11"/>
        <vehicle id="vtypeauto.1" x="33.11" y="242.45" angle="90.00" type="vtypeauto" speed="27.78" pos="33.11" lane="edge_0_0_0" slope="0.00" signals="0" acceleration="-0.00" distance="33.11"/>
        <vehicle id="vtypeauto.2" x="24.11" y="242.45" angle="90.00" type="vtypeauto" speed="27.78" pos="24.11" lane="edge_0_0_0" slope="0.00" signals="0" acceleration="-0.00" distance="24.11"/>
        <vehicle id="vtypeauto.3" x="15.11" y="242.45" angle="90.00" type="vtypeauto" speed="27.78" pos="15.11" lane="edge_0_0_0" slope="0.00" signals="0" acceleration="-0.00" distance="15.11"/>
    </timestep>
    <timestep time="1.25">
        <vehicle id="vtypeauto.0" x="42.38" y="242.45" angle="90.00" type="vtypeauto" speed="27.78" pos="42.38" lane="edge_0_0_0" slope="0.00" signals="0" acceleration="-0.00" distance="42.38"/>
        <vehicle id="vtypeauto.1" x="33.38" y="242.45" angle="90.00" type="vtypeauto" speed="27.78" pos="33.38" lane="edge_0_0_0" slope="0.00" signals="0" acceleration="-0.00" distance="33.38"/>
        <vehicle id="vtypeauto.2" x="24.38" y="242.45" angle="90.00" type="vtypeauto" speed="27.78" pos="24.38" lane="edge_0_0_0" slope="0.00" signals="0" acceleration="-0.00" distance="24.38"/>
        <vehicle id="vtypeauto.3" x="15.38" y="242.45" angle="90.00" type="vtypeauto" speed="27.78" pos="15.38" lane="edge_0_0_0" slope="0.00" signals="0" acceleration="-0.00" distance="15.38"/>
    </timestep>
    <timestep time="1.26">
        <vehicle id="vtypeauto.0" x="42.66" y="242.45" angle="90.00" type="vtypeauto" speed="27.78" pos="42.66" lane="edge_0_0_0" slope="0.00" signals="0" acceleration="-0.00" distance="42.66"/>
        <vehicle id="vtypeauto.1" x="33.66" y="242.45" angle="90.00" type="vtypeauto" speed="27.78" pos="33.66" lane="edge_0_0_0" slope="0.00" signals="0" acceleration="-0.00" distance="33.66"/>
        <vehicle id="vtypeauto.2" x="24.66" y="242.45" angle="90.00" type="vtypeauto" speed="27.78" pos="24.66" lane="edge_0_0_0" slope="0.00" signals="0" acceleration="-0.00" distance="24.66"/>
        <vehicle id="vtypeauto.3" x="15.66" y="242.45" angle="90.00" type="vtypeauto" speed="27.78" pos="15.66" lane="edge_0_0_0" slope="0.00" signals="0" acceleration="-0.00" distance="15.66"/>
    </timestep>
    <timestep time="1.27">
        <vehicle id="vtypeauto.0" x="42.94" y="242.45" angle="90.00" type="vtypeauto" speed="27.78" pos="42.94" lane="edge_0_0_0" slope="0.00" signals="0" acceleration="-0.00" distance="42.94"/>
        <vehicle id="vtypeauto.1" x="33.94" y="242.45" angle="90.00" type="vtypeauto" speed="27.78" pos="33.94" lane="edge_0_0_0" slope="0.00" signals="0" acceleration="-0.00" distance="33.94"/>
        <vehicle id="vtypeauto.2" x="24.94" y="242.45" angle="90.00" type="vtypeauto" speed="27.78" pos="24.94" lane="edge_0_0_0" slope="0.00" signals="0" acceleration="-0.00" distance="24.94"/>
        <vehicle id="vtypeauto.3" x="15.94" y="242.45" angle="90.00" type="vtypeauto" speed="27.78" pos="15.94" lane="edge_0_0_0" slope="0.00" signals="0" acceleration="-0.00" distance="15.94"/>
    </timestep>
    <timestep time="1.28">
        <vehicle id="vtypeauto.0" x="43.22" y="242.45" angle="90.00" type="vtypeauto" speed="27.78" pos="43.22" lane="edge_0_0_0" slope="0.00" signals="0" acceleration="-0.00" distance="43.22"/>
        <vehicle id="vtypeauto.1" x="34.22" y="242.45" angle="90.00" type="vtypeauto" speed="27.78" pos="34.22" lane="edge_0_0_0" slope="0.00" signals="0" acceleration="-0.00" distance="34.22"/>
        <vehicle id="vtypeauto.2" x="25.22" y="242.45" angle="90.00" type="vtypeauto" speed="27.78" pos="25.22" lane="edge_0_0_0" slope="0.00" signals="0" acceleration="-0.00" distance="25.22"/>
        <vehicle id="vtypeauto.3" x="16.22" y="242.45" angle="90.00" type="vtypeauto" speed="27.78" pos="16.22" lane="edge_0_0_0" slope="0.00" signals="0" acceleration="-0.00" distance="16.22"/>
    </timestep>
    <timestep time="1.29">
        <vehicle id="vtypeauto.0" x="43.50" y="242.45" angle="90.00" type="vtypeauto" speed="27.78" pos="43.50" lane="edge_0_0_0" slope="0.00" signals="0" acceleration="-0.00" distance="43.50"/>
        <vehicle id="vtypeauto.1" x="34.50" y="242.45" angle="90.00" type="vtypeauto" speed="27.78" pos="34.50" lane="edge_0_0_0" slope="0.00" signals="0" acceleration="-0.00" distance="34.50"/>
        <vehicle id="vtypeauto.2" x="25.50" y="242.45" angle="90.00" type="vtypeauto" speed="27.78" pos="25.50" lane="edge_0_0_0" slope="0.00" signals="0" acceleration="-0.00" distance="25.50"/>
        <vehicle id="vtypeauto.3" x="16.50" y="242.45" angle="90.00" type="vtypeauto" speed="27.78" pos="16.50" lane="edge_0_0_0" slope="0.00" signals="0" acceleration="-0.00" distance="16.50"/>
    </timestep>
    <timestep time="1.30">
        <vehicle id="vtypeauto.0" x="43.77" y="242.45" angle="90.00" type="vtypeauto" speed="27.78" pos="43.77" lane="edge_0_0_0" slope="0.00" signals="0" acceleration="-0.00" distance="43.77"/>
        <vehicle id="vtypeauto.1" x="34.77" y="242.45" angle="90.00" type="vtypeauto" speed="27.78" pos="34.77" lane="edge_0_0_0" slope="0.00" signals="0" acceleration="-0.00" distance="34.77"/>
        <vehicle id="vtypeauto.2" x="25.77" y="242.45" angle="90.00" type="vtypeauto" speed="27.78" pos="25.77" lane="edge_0_0_0" slope="0.00" signals="0" acceleration="-0.00" distance="25.77"/>
        <vehicle id="vtypeauto.3" x="16.77" y="242.45" angle="90.00" type="vtypeauto" speed="27.78" pos="16.77" lane="edge_0_0_0" slope="0.00" signals="0" acceleration="-0.00" distance="16.77"/>
    </timestep>
    <timestep time="1.31">
        <vehicle id="vtypeauto.0" x="44.05" y="242.45" angle="90.00" type="vtypeauto" speed="27.78" pos="44.05" lane="edge_0_0_0" slope="0.00" signals="0" acceleration="-0.00" distance="44.05"/>